# vtk DataFile Version 3.0
vtk output
ASCII
DATASET POLYDATA
POINTS 30 float
0.0 4.93509 12.6162
0.0 3.06952 13.4637
0.0 4.81723 1.2154
0.0 5.09512 11.1513
0.0 6.43489 2.20587
0.0 5.92208 5.35134
0.0 14.2221 3.36607
0.0 0.930799 10.8844
0.0 11.1556 13.0669
0.0 12.5602 6.91057
0.0 11.789 10.7544
0.0 7.29239 11.1318
0.0 7.29534 1.47452
0.0 1.88609 12.6939
0.0 2.39426 8.73509
0.0 4.61486 13.1505
0.0 12.133 7.90345
0.0 0.953909 7.06161
0.0 9.61594 9.05193
0.0 14.5843 9.50106
0.0 10.6073 12.2373
0.0 14.1059 14.0811
0.0 0.360716 4.78858
0.0 3.64428 5.41078
0.0 4.40095 13.5733
0.0 14.0184 7.85452
0.0 8.67842 8.00728
0.0 9.87995 3.35378
0.0 2.10981 7.89077
0.0 6.79548 5.53448
POINT_DATA 30
FIELD droplets 2
angle 1 30 float
19.4529 13.6111 12.6908 11.6632 12.8154 15.9422 12.3205 11.8599 15.057 11.0382 12.0368 7.85317 15.8793 11.5625 15.2961 15.1114 12.4355 17.0717 14.2468 7.97317 15.2851 9.06499 17.3767 12.0323 14.0446 13.806 13.9101 18.4399 6.57422 10.1588 
area 1 30 float
0.637922 0.837418 0.938683 0.171408 0.321355 0.437386 0.650839 0.50361 0.232287 0.593081 0.179381 0.694524 0.659454 0.548955 0.669728 0.521837 1.10699 0.146496 0.462386 0.511224 0.233627 0.294925 0.202192 0.748152 0.56019 0.321169 0.654494 0.135038 0.545914 0.710096 
